 Entering Gaussian System, Link 0=g09
 Input=h2o.gjf
 Output=h2o.log
 Initial command:
 /usr/local/g09/l1.exe /scratch/james/Gau-4322.inp -scrdir=/scratch/james/
 Entering Link 1 = /usr/local/g09/l1.exe PID=      4323.
  
 Copyright (c) 1988,1990,1992,1993,1995,1998,2003,2009,2011,
            Gaussian, Inc.  All Rights Reserved.
  
 This is part of the Gaussian(R) 09 program.  It is based on
 the Gaussian(R) 03 system (copyright 2003, Gaussian, Inc.),
 the Gaussian(R) 98 system (copyright 1998, Gaussian, Inc.),
 the Gaussian(R) 94 system (copyright 1995, Gaussian, Inc.),
 the Gaussian 92(TM) system (copyright 1992, Gaussian, Inc.),
 the Gaussian 90(TM) system (copyright 1990, Gaussian, Inc.),
 the Gaussian 88(TM) system (copyright 1988, Gaussian, Inc.),
 the Gaussian 86(TM) system (copyright 1986, Carnegie Mellon
 University), and the Gaussian 82(TM) system (copyright 1983,
 Carnegie Mellon University). Gaussian is a federally registered
 trademark of Gaussian, Inc.
  
 This software contains proprietary and confidential information,
 including trade secrets, belonging to Gaussian, Inc.
  
 This software is provided under written license and may be
 used, copied, transmitted, or stored only in accord with that
 written license.
  
 The following legend is applicable only to US Government
 contracts under FAR:
  
                    RESTRICTED RIGHTS LEGEND
  
 Use, reproduction and disclosure by the US Government is
 subject to restrictions as set forth in subparagraphs (a)
 and (c) of the Commercial Computer Software - Restricted
 Rights clause in FAR 52.227-19.
  
 Gaussian, Inc.
 340 Quinnipiac St., Bldg. 40, Wallingford CT 06492
  
  
 ---------------------------------------------------------------
 Warning -- This program may not be used in any manner that
 competes with the business of Gaussian, Inc. or will provide
 assistance to any competitor of Gaussian, Inc.  The licensee
 of this program is prohibited from giving any competitor of
 Gaussian, Inc. access to this program.  By using this program,
 the user acknowledges that Gaussian, Inc. is engaged in the
 business of creating and licensing software in the field of
 computational chemistry and represents and warrants to the
 licensee that it is not a competitor of Gaussian, Inc. and that
 it will not use this program in any manner prohibited above.
 ---------------------------------------------------------------
  

 Cite this work as:
 Gaussian 09, Revision C.01,
 M. J. Frisch, G. W. Trucks, H. B. Schlegel, G. E. Scuseria, 
 M. A. Robb, J. R. Cheeseman, G. Scalmani, V. Barone, B. Mennucci, 
 G. A. Petersson, H. Nakatsuji, M. Caricato, X. Li, H. P. Hratchian, 
 A. F. Izmaylov, J. Bloino, G. Zheng, J. L. Sonnenberg, M. Hada, 
 M. Ehara, K. Toyota, R. Fukuda, J. Hasegawa, M. Ishida, T. Nakajima, 
 Y. Honda, O. Kitao, H. Nakai, T. Vreven, J. A. Montgomery, Jr., 
 J. E. Peralta, F. Ogliaro, M. Bearpark, J. J. Heyd, E. Brothers, 
 K. N. Kudin, V. N. Staroverov, T. Keith, R. Kobayashi, J. Normand, 
 K. Raghavachari, A. Rendell, J. C. Burant, S. S. Iyengar, J. Tomasi, 
 M. Cossi, N. Rega, J. M. Millam, M. Klene, J. E. Knox, J. B. Cross, 
 V. Bakken, C. Adamo, J. Jaramillo, R. Gomperts, R. E. Stratmann, 
 O. Yazyev, A. J. Austin, R. Cammi, C. Pomelli, J. W. Ochterski, 
 R. L. Martin, K. Morokuma, V. G. Zakrzewski, G. A. Voth, 
 P. Salvador, J. J. Dannenberg, S. Dapprich, A. D. Daniels, 
 O. Farkas, J. B. Foresman, J. V. Ortiz, J. Cioslowski, 
 and D. J. Fox, Gaussian, Inc., Wallingford CT, 2010.
 
 ******************************************
 Gaussian 09:  AM64L-G09RevC.01 23-Sep-2011
                20-Jun-2024 
 ******************************************
 %chk=h2o.chk
 ------------------------------------------------------
 # opt freq=hpmodes mp2/6-311++g(d,p) geom=connectivity
 ------------------------------------------------------
 1/18=20,19=15,38=1,57=2/1,3;
 2/9=110,12=2,17=6,18=5,40=1/2;
 3/5=4,6=6,7=1111,11=9,16=1,25=1,30=1,71=1/1,2,3;
 4//1;
 5/5=2,38=5/2;
 8/6=4,10=2/1;
 9/15=2,16=-3/6;
 10/5=1/2;
 6/7=2,8=2,9=2,10=2/1;
 7/12=2/1,2,3,16;
 1/18=20,19=15/3(2);
 2/9=110/2;
 99//99;
 2/9=110/2;
 3/5=4,6=6,7=1111,11=9,16=1,25=1,30=1,71=1/1,2,3;
 4/5=5,16=3/1;
 5/5=2,38=5/2;
 8/6=4,10=2/1;
 9/15=2,16=-3/6;
 10/5=1/2;
 7/12=2/1,2,3,16;
 1/18=20,19=15/3(-8);
 2/9=110/2;
 6/7=2,8=2,9=2,10=2/1;
 99//99;
 -------------
 h2o vibration
 -------------
 Charge =  0 Multiplicity = 1
 Symbolic Z-Matrix:
 O                     0.        0.       -0.11085 
 H                     0.       -0.78384   0.44341 
 H                     0.        0.78384   0.44341 
 

 GradGradGradGradGradGradGradGradGradGradGradGradGradGradGradGradGradGrad
 Berny optimization.
 Initialization pass.
                           ----------------------------
                           !    Initial Parameters    !
                           ! (Angstroms and Degrees)  !
 --------------------------                            --------------------------
 ! Name  Definition              Value          Derivative Info.                !
 --------------------------------------------------------------------------------
 ! R1    R(1,2)                  0.96           estimate D2E/DX2                !
 ! R2    R(1,3)                  0.96           estimate D2E/DX2                !
 ! A1    A(2,1,3)              109.4712         estimate D2E/DX2                !
 --------------------------------------------------------------------------------
 Trust Radius=3.00D-01 FncErr=1.00D-07 GrdErr=1.00D-07
 Number of steps in this run=     20 maximum allowed number of steps=    100.
 GradGradGradGradGradGradGradGradGradGradGradGradGradGradGradGradGradGrad

                          Input orientation:                          
 ---------------------------------------------------------------------
 Center     Atomic      Atomic             Coordinates (Angstroms)
 Number     Number       Type             X           Y           Z
 ---------------------------------------------------------------------
      1          8           0        0.000000    0.000000   -0.110851
      2          1           0        0.000000   -0.783837    0.443405
      3          1           0        0.000000    0.783837    0.443405
 ---------------------------------------------------------------------
                    Distance matrix (angstroms):
                    1          2          3
     1  O    0.000000
     2  H    0.960000   0.000000
     3  H    0.960000   1.567673   0.000000
 Stoichiometry    H2O
 Framework group  C2V[C2(O),SGV(H2)]
 Deg. of freedom     2
 Full point group                 C2V     NOp   4
 Largest Abelian subgroup         C2V     NOp   4
 Largest concise Abelian subgroup C2      NOp   2
                         Standard orientation:                         
 ---------------------------------------------------------------------
 Center     Atomic      Atomic             Coordinates (Angstroms)
 Number     Number       Type             X           Y           Z
 ---------------------------------------------------------------------
      1          8           0        0.000000    0.000000    0.110851
      2          1           0       -0.000000    0.783837   -0.443405
      3          1           0       -0.000000   -0.783837   -0.443405
 ---------------------------------------------------------------------
 Rotational constants (GHZ):    919.0227172    408.0852029    282.5991514
 Standard basis: 6-311++G(d,p) (5D, 7F)
 There are    17 symmetry adapted basis functions of A1  symmetry.
 There are     2 symmetry adapted basis functions of A2  symmetry.
 There are     6 symmetry adapted basis functions of B1  symmetry.
 There are    11 symmetry adapted basis functions of B2  symmetry.
 Integral buffers will be    131072 words long.
 Raffenetti 1 integral format.
 Two-electron integral symmetry is turned on.
    36 basis functions,    54 primitive gaussians,    37 cartesian basis functions
     5 alpha electrons        5 beta electrons
       nuclear repulsion energy         9.1571758833 Hartrees.
 NAtoms=    3 NActive=    3 NUniq=    2 SFac= 2.25D+00 NAtFMM=   60 NAOKFM=F Big=F
 One-electron integrals computed using PRISM.
 NBasis=    36 RedAO= T  NBF=    17     2     6    11
 NBsUse=    36 1.00D-06 NBFU=    17     2     6    11
 Harris functional with IExCor=  205 diagonalized for initial guess.
 ExpMin= 3.60D-02 ExpMax= 8.59D+03 ExpMxC= 1.30D+03 IAcc=3 IRadAn=         5 AccDes= 0.00D+00
 HarFok:  IExCor=  205 AccDes= 0.00D+00 IRadAn=         5 IDoV= 1
 ScaDFX=  1.000000  1.000000  1.000000  1.000000
 FoFCou: FMM=F IPFlag=           0 FMFlag=      100000 FMFlg1=           0
         NFxFlg=           0 DoJE=T BraDBF=F KetDBF=T FulRan=T
         Omega=  0.000000  0.000000  1.000000  0.000000  0.000000 ICntrl=     500 IOpCl=  0
         NMat0=    1 NMatS0=    1 NMatT0=    0 NMatD0=    1 NMtDS0=    0 NMtDT0=    0
         I1Cent=           4 NGrid=           0.
 Petite list used in FoFCou.
 Initial guess orbital symmetries:
       Occupied  (A1) (A1) (B2) (A1) (B1)
       Virtual   (A1) (B2) (A1) (B1) (B2) (A1) (B2) (A1) (B2) (A1)
                 (A1) (B1) (B2) (A2) (A1) (A1) (B1) (B2) (B2) (A1)
                 (A1) (B2) (B1) (A2) (A1) (A1) (B2) (B1) (A1) (B2)
                 (A1)
 The electronic state of the initial guess is 1-A1.
 Requested convergence on RMS density matrix=1.00D-08 within 128 cycles.
 Requested convergence on MAX density matrix=1.00D-06.
 Requested convergence on             energy=1.00D-06.
 No special actions if energy rises.
 Keep R1 ints in memory in canonical form, NReq=1090309.
 SCF Done:  E(RHF) =  -76.0522971057     A.U. after   10 cycles
             Convg  =    0.9624D-08             -V/T =  2.0011
 ExpMin= 3.60D-02 ExpMax= 8.59D+03 ExpMxC= 1.30D+03 IAcc=3 IRadAn=         5 AccDes= 0.00D+00
 HarFok:  IExCor=  205 AccDes= 0.00D+00 IRadAn=         5 IDoV=-2
 ScaDFX=  1.000000  1.000000  1.000000  1.000000
 Range of M.O.s used for correlation:     2    36
 NBasis=    36 NAE=     5 NBE=     5 NFC=     1 NFV=     0
 NROrb=     35 NOA=     4 NOB=     4 NVA=    31 NVB=    31
 Fully direct method using O(ONN) memory.
 JobTyp=1 Pass  1:  I=   2 to   5 NPSUse=  1 ParTrn=F ParDer=F DoDerP=T.
 Spin components of T(2) and E(2):
     alpha-alpha T2 =       0.7028347165D-02 E2=     -0.2803697890D-01
     alpha-beta  T2 =       0.4117978801D-01 E2=     -0.1657162021D+00
     beta-beta   T2 =       0.7028347165D-02 E2=     -0.2803697890D-01
 ANorm=    0.1027247041D+01
 E2 =    -0.2217901599D+00 EUMP2 =    -0.76274087265589D+02
          IDoAtm=111
          Differentiating once with respect to electric field.
                with respect to dipole field.
          Differentiating once with respect to nuclear coordinates.
          Keep R1 ints in memory in canonical form, NReq=1068143.
          There are     1 degrees of freedom in the 1st order CPHF.  IDoFFX=0.
 LinEq1:  Iter=  0 NonCon=     1 RMS=7.78D-03 Max=6.42D-02
 AX will form     1 AO Fock derivatives at one time.
 LinEq1:  Iter=  1 NonCon=     1 RMS=8.12D-04 Max=4.49D-03
 LinEq1:  Iter=  2 NonCon=     1 RMS=1.11D-04 Max=5.01D-04
 LinEq1:  Iter=  3 NonCon=     1 RMS=3.62D-05 Max=2.66D-04
 LinEq1:  Iter=  4 NonCon=     1 RMS=8.03D-06 Max=3.64D-05
 LinEq1:  Iter=  5 NonCon=     1 RMS=1.42D-06 Max=5.61D-06
 LinEq1:  Iter=  6 NonCon=     1 RMS=2.66D-07 Max=1.11D-06
 LinEq1:  Iter=  7 NonCon=     1 RMS=3.27D-08 Max=1.51D-07
 LinEq1:  Iter=  8 NonCon=     1 RMS=3.94D-09 Max=2.74D-08
 LinEq1:  Iter=  9 NonCon=     1 RMS=4.28D-10 Max=1.82D-09
 LinEq1:  Iter= 10 NonCon=     0 RMS=3.27D-11 Max=1.34D-10
 Linear equations converged to 1.000D-10 1.000D-09 after    10 iterations.
 End of Minotr Frequency-dependent properties file   721 does not exist.
 End of Minotr Frequency-dependent properties file   722 does not exist.

 **********************************************************************

            Population analysis using the SCF density.

 **********************************************************************

 Orbital symmetries:
       Occupied  (A1) (A1) (B2) (A1) (B1)
       Virtual   (A1) (B2) (A1) (B1) (A1) (B2) (B2) (A1) (B2) (A1)
                 (A1) (B2) (B1) (A2) (A1) (A1) (B1) (B2) (B2) (A1)
                 (A1) (B2) (B1) (A2) (A1) (A1) (B2) (B1) (A1) (B2)
                 (A1)
 The electronic state is 1-A1.
 Alpha  occ. eigenvalues --  -20.56482  -1.35059  -0.72845  -0.57399  -0.50837
 Alpha virt. eigenvalues --    0.04358   0.07184   0.24091   0.24574   0.24686
 Alpha virt. eigenvalues --    0.26173   0.31767   0.32222   0.69320   0.72088
 Alpha virt. eigenvalues --    1.20125   1.24125   1.24484   1.48920   1.51435
 Alpha virt. eigenvalues --    1.63488   1.74001   1.89456   2.32767   2.44087
 Alpha virt. eigenvalues --    2.73067   2.85956   3.45638   3.55166   3.69152
 Alpha virt. eigenvalues --    4.12241   4.30091   5.49086   5.84139   6.22790
 Alpha virt. eigenvalues --   51.57125
          Condensed to atoms (all electrons):
              1          2          3
     1  O    7.853618   0.339367   0.339367
     2  H    0.339367   0.419849  -0.025391
     3  H    0.339367  -0.025391   0.419849
 Mulliken atomic charges:
              1
     1  O   -0.532351
     2  H    0.266176
     3  H    0.266176
 Sum of Mulliken atomic charges =  -0.00000
 Mulliken charges with hydrogens summed into heavy atoms:
              1
     1  O   -0.000000
 Sum of Mulliken charges with hydrogens summed into heavy atoms =  -0.00000
 Electronic spatial extent (au):  <R**2>=             19.5577
 Charge=             -0.0000 electrons
 Dipole moment (field-independent basis, Debye):
    X=             -0.0000    Y=             -0.0000    Z=             -2.1626  Tot=              2.1626
 Quadrupole moment (field-independent basis, Debye-Ang):
   XX=             -7.5780   YY=             -4.0201   ZZ=             -6.4447
   XY=              0.0000   XZ=              0.0000   YZ=              0.0000
 Traceless Quadrupole moment (field-independent basis, Debye-Ang):
   XX=             -1.5637   YY=              1.9942   ZZ=             -0.4305
   XY=              0.0000   XZ=              0.0000   YZ=              0.0000
 Octapole moment (field-independent basis, Debye-Ang**2):
  XXX=              0.0000  YYY=             -0.0000  ZZZ=             -1.4666  XYY=             -0.0000
  XXY=              0.0000  XXZ=             -0.4197  XZZ=              0.0000  YZZ=             -0.0000
  YYZ=             -1.4586  XYZ=             -0.0000
 Hexadecapole moment (field-independent basis, Debye-Ang**3):
 XXXX=             -6.6954 YYYY=             -5.7385 ZZZZ=             -7.2662 XXXY=             -0.0000
 XXXZ=             -0.0000 YYYX=              0.0000 YYYZ=              0.0000 ZZZX=             -0.0000
 ZZZY=              0.0000 XXYY=             -2.4292 XXZZ=             -2.3737 YYZZ=             -1.8804
 XXYZ=             -0.0000 YYXZ=              0.0000 ZZXY=             -0.0000
 N-N= 9.157175883291D+00 E-N=-1.989366488234D+02  KE= 7.597014775027D+01
 Symmetry A1   KE= 6.795173997668D+01
 Symmetry A2   KE= 3.523548426178D-35
 Symmetry B1   KE= 4.473930522959D+00
 Symmetry B2   KE= 3.544477250632D+00
 Calling FoFJK, ICntrl=      2127 FMM=F ISym2X=1 I1Cent= 0 IOpClX= 0 NMat=1 NMatS=1 NMatT=0.
 ***** Axes restored to original set *****
 -------------------------------------------------------------------
 Center     Atomic                   Forces (Hartrees/Bohr)
 Number     Number              X              Y              Z
 -------------------------------------------------------------------
      1        8          -0.000000000    0.000000000   -0.009997158
      2        1           0.000000000    0.007710349    0.004998579
      3        1           0.000000000   -0.007710349    0.004998579
 -------------------------------------------------------------------
 Cartesian Forces:  Max     0.009997158 RMS     0.005465180

 GradGradGradGradGradGradGradGradGradGradGradGradGradGradGradGradGradGrad
 Berny optimization.
 Internal  Forces:  Max     0.015479840 RMS     0.009360830
 Search for a local minimum.
 Step number   1 out of a maximum of   20
 All quantities printed in internal units (Hartrees-Bohrs-Radians)
 Mixed Optimization -- RFO/linear search
 Second derivative matrix not updated -- first step.
 The second derivative matrix:
                          R1        R2        A1
           R1           0.55473
           R2           0.00000   0.55473
           A1           0.00000   0.00000   0.16000
 ITU=  0
     Eigenvalues ---    0.16000   0.55473   0.55473
 RFO step:  Lambda=-1.52531462D-03 EMin= 1.60000000D-01
 Linear search not attempted -- first point.
 Iteration  1 RMS(Cart)=  0.05510699 RMS(Int)=  0.00170957
 Iteration  2 RMS(Cart)=  0.00142912 RMS(Int)=  0.00000012
 Iteration  3 RMS(Cart)=  0.00000012 RMS(Int)=  0.00000000
 ClnCor:  largest displacement from symmetrization is 3.54D-15 for atom     3.
 Variable       Old X    -DE/DX   Delta X   Delta X   Delta X     New X
                                 (Linear)    (Quad)   (Total)
    R1        1.81414  -0.00341   0.00000  -0.00613  -0.00613   1.80801
    R2        1.81414  -0.00341   0.00000  -0.00613  -0.00613   1.80801
    A1        1.91063  -0.01548   0.00000  -0.09584  -0.09584   1.81480
         Item               Value     Threshold  Converged?
 Maximum Force            0.015480     0.000450     NO 
 RMS     Force            0.009361     0.000300     NO 
 Maximum Displacement     0.056699     0.001800     NO 
 RMS     Displacement     0.055771     0.001200     NO 
 Predicted change in Energy=-7.697186D-04
 GradGradGradGradGradGradGradGradGradGradGradGradGradGradGradGradGradGrad

                          Input orientation:                          
 ---------------------------------------------------------------------
 Center     Atomic      Atomic             Coordinates (Angstroms)
 Number     Number       Type             X           Y           Z
 ---------------------------------------------------------------------
      1          8           0        0.000000   -0.000000   -0.134126
      2          1           0        0.000000   -0.753833    0.455042
      3          1           0       -0.000000    0.753833    0.455042
 ---------------------------------------------------------------------
                    Distance matrix (angstroms):
                    1          2          3
     1  O    0.000000
     2  H    0.956756   0.000000
     3  H    0.956756   1.507666   0.000000
 Stoichiometry    H2O
 Framework group  C2V[C2(O),SGV(H2)]
 Deg. of freedom     2
 Full point group                 C2V     NOp   4
 Largest Abelian subgroup         C2V     NOp   4
 Largest concise Abelian subgroup C2      NOp   2
                         Standard orientation:                         
 ---------------------------------------------------------------------
 Center     Atomic      Atomic             Coordinates (Angstroms)
 Number     Number       Type             X           Y           Z
 ---------------------------------------------------------------------
      1          8           0        0.000000    0.000000    0.117834
      2          1           0        0.000000    0.753833   -0.471334
      3          1           0       -0.000000   -0.753833   -0.471334
 ---------------------------------------------------------------------
 Rotational constants (GHZ):    813.3345049    441.2166571    286.0439193
 Standard basis: 6-311++G(d,p) (5D, 7F)
 There are    17 symmetry adapted basis functions of A1  symmetry.
 There are     2 symmetry adapted basis functions of A2  symmetry.
 There are     6 symmetry adapted basis functions of B1  symmetry.
 There are    11 symmetry adapted basis functions of B2  symmetry.
 Integral buffers will be    131072 words long.
 Raffenetti 1 integral format.
 Two-electron integral symmetry is turned on.
    36 basis functions,    54 primitive gaussians,    37 cartesian basis functions
     5 alpha electrons        5 beta electrons
       nuclear repulsion energy         9.2005109871 Hartrees.
 NAtoms=    3 NActive=    3 NUniq=    2 SFac= 2.25D+00 NAtFMM=   60 NAOKFM=F Big=F
 One-electron integrals computed using PRISM.
 NBasis=    36 RedAO= T  NBF=    17     2     6    11
 NBsUse=    36 1.00D-06 NBFU=    17     2     6    11
 Initial guess read from the read-write file.
 B after Tr=     0.000000    0.000000    0.000000
         Rot=    1.000000    0.000000    0.000000    0.000000 Ang=   0.00 deg.
 Initial guess orbital symmetries:
       Occupied  (A1) (A1) (B2) (A1) (B1)
       Virtual   (A1) (B2) (A1) (B1) (A1) (B2) (B2) (A1) (B2) (A1)
                 (A1) (B2) (B1) (A2) (A1) (A1) (B1) (B2) (B2) (A1)
                 (A1) (B2) (B1) (A2) (A1) (A1) (B2) (B1) (A1) (B2)
                 (A1)
 Harris functional with IExCor=  205 diagonalized for initial guess.
 ExpMin= 3.60D-02 ExpMax= 8.59D+03 ExpMxC= 1.30D+03 IAcc=3 IRadAn=         5 AccDes= 0.00D+00
 HarFok:  IExCor=  205 AccDes= 0.00D+00 IRadAn=         5 IDoV= 1
 ScaDFX=  1.000000  1.000000  1.000000  1.000000
 FoFCou: FMM=F IPFlag=           0 FMFlag=      100000 FMFlg1=           0
         NFxFlg=           0 DoJE=T BraDBF=F KetDBF=T FulRan=T
         Omega=  0.000000  0.000000  1.000000  0.000000  0.000000 ICntrl=     500 IOpCl=  0
         NMat0=    1 NMatS0=    1 NMatT0=    0 NMatD0=    1 NMtDS0=    0 NMtDT0=    0
         I1Cent=           4 NGrid=           0.
 Petite list used in FoFCou.
 Requested convergence on RMS density matrix=1.00D-08 within 128 cycles.
 Requested convergence on MAX density matrix=1.00D-06.
 Requested convergence on             energy=1.00D-06.
 No special actions if energy rises.
 Keep R1 ints in memory in canonical form, NReq=1090309.
 SCF Done:  E(RHF) =  -76.0528343471     A.U. after    9 cycles
             Convg  =    0.8963D-08             -V/T =  2.0008
 ExpMin= 3.60D-02 ExpMax= 8.59D+03 ExpMxC= 1.30D+03 IAcc=3 IRadAn=         5 AccDes= 0.00D+00
 HarFok:  IExCor=  205 AccDes= 0.00D+00 IRadAn=         5 IDoV=-2
 ScaDFX=  1.000000  1.000000  1.000000  1.000000
 Range of M.O.s used for correlation:     2    36
 NBasis=    36 NAE=     5 NBE=     5 NFC=     1 NFV=     0
 NROrb=     35 NOA=     4 NOB=     4 NVA=    31 NVB=    31
 Fully direct method using O(ONN) memory.
 JobTyp=1 Pass  1:  I=   2 to   5 NPSUse=  1 ParTrn=F ParDer=F DoDerP=T.
 Spin components of T(2) and E(2):
     alpha-alpha T2 =       0.7029950988D-02 E2=     -0.2807037993D-01
     alpha-beta  T2 =       0.4120524946D-01 E2=     -0.1659269077D+00
     beta-beta   T2 =       0.7029950988D-02 E2=     -0.2807037993D-01
 ANorm=    0.1027260995D+01
 E2 =    -0.2220676675D+00 EUMP2 =    -0.76274902014666D+02
          IDoAtm=111
          Differentiating once with respect to electric field.
                with respect to dipole field.
          Differentiating once with respect to nuclear coordinates.
          Keep R1 ints in memory in canonical form, NReq=1068143.
          There are     1 degrees of freedom in the 1st order CPHF.  IDoFFX=0.
 LinEq1:  Iter=  0 NonCon=     1 RMS=7.74D-03 Max=6.42D-02
 AX will form     1 AO Fock derivatives at one time.
 LinEq1:  Iter=  1 NonCon=     1 RMS=8.27D-04 Max=4.54D-03
 LinEq1:  Iter=  2 NonCon=     1 RMS=1.12D-04 Max=4.84D-04
 LinEq1:  Iter=  3 NonCon=     1 RMS=3.21D-05 Max=2.28D-04
 LinEq1:  Iter=  4 NonCon=     1 RMS=8.23D-06 Max=3.97D-05
 LinEq1:  Iter=  5 NonCon=     1 RMS=1.43D-06 Max=6.08D-06
 LinEq1:  Iter=  6 NonCon=     1 RMS=2.58D-07 Max=1.07D-06
 LinEq1:  Iter=  7 NonCon=     1 RMS=3.17D-08 Max=1.51D-07
 LinEq1:  Iter=  8 NonCon=     1 RMS=3.85D-09 Max=2.71D-08
 LinEq1:  Iter=  9 NonCon=     1 RMS=4.20D-10 Max=1.98D-09
 LinEq1:  Iter= 10 NonCon=     0 RMS=3.20D-11 Max=1.24D-10
 Linear equations converged to 1.000D-10 1.000D-09 after    10 iterations.
 End of Minotr Frequency-dependent properties file   721 does not exist.
 End of Minotr Frequency-dependent properties file   722 does not exist.
 Calling FoFJK, ICntrl=      2127 FMM=F ISym2X=1 I1Cent= 0 IOpClX= 0 NMat=1 NMatS=1 NMatT=0.
 ***** Axes restored to original set *****
 -------------------------------------------------------------------
 Center     Atomic                   Forces (Hartrees/Bohr)
 Number     Number              X              Y              Z
 -------------------------------------------------------------------
      1        8          -0.000000000    0.000000000   -0.004174708
      2        1           0.000000000   -0.001690804    0.002087354
      3        1           0.000000000    0.001690804    0.002087354
 -------------------------------------------------------------------
 Cartesian Forces:  Max     0.004174708 RMS     0.001881486

 GradGradGradGradGradGradGradGradGradGradGradGradGradGradGradGradGradGrad
 Berny optimization.
 Using GEDIIS/GDIIS optimizer.
 Internal  Forces:  Max     0.002617579 RMS     0.002228137
 Search for a local minimum.
 Step number   2 out of a maximum of   20
 All quantities printed in internal units (Hartrees-Bohrs-Radians)
 Mixed Optimization -- RFO/linear search
 Update second derivatives using D2CorX and points    1    2
 DE= -8.15D-04 DEPred=-7.70D-04 R= 1.06D+00
 SS=  1.41D+00  RLast= 9.62D-02 DXNew= 5.0454D-01 2.8868D-01
 Trust test= 1.06D+00 RLast= 9.62D-02 DXMaxT set to 3.00D-01
 The second derivative matrix:
                          R1        R2        A1
           R1           0.57209
           R2           0.01735   0.57209
           A1           0.02519   0.02519   0.14692
 ITU=  1  0
 Use linear search instead of GDIIS.
     Eigenvalues ---    0.14407   0.55473   0.59229
 RFO step:  Lambda=-3.12203826D-05 EMin= 1.44068832D-01
 Quartic linear search produced a step of  0.04665.
 Iteration  1 RMS(Cart)=  0.00442341 RMS(Int)=  0.00001948
 Iteration  2 RMS(Cart)=  0.00002192 RMS(Int)=  0.00000000
 Iteration  3 RMS(Cart)=  0.00000000 RMS(Int)=  0.00000000
 ClnCor:  largest displacement from symmetrization is 6.28D-16 for atom     3.
 Variable       Old X    -DE/DX   Delta X   Delta X   Delta X     New X
                                 (Linear)    (Quad)   (Total)
    R1        1.80801   0.00262  -0.00029   0.00511   0.00482   1.81283
    R2        1.80801   0.00262  -0.00029   0.00511   0.00482   1.81283
    A1        1.81480  -0.00109  -0.00447  -0.00428  -0.00875   1.80605
         Item               Value     Threshold  Converged?
 Maximum Force            0.002618     0.000450     NO 
 RMS     Force            0.002228     0.000300     NO 
 Maximum Displacement     0.006136     0.001800     NO 
 RMS     Displacement     0.004430     0.001200     NO 
 Predicted change in Energy=-1.758637D-05
 GradGradGradGradGradGradGradGradGradGradGradGradGradGradGradGradGradGrad

                          Input orientation:                          
 ---------------------------------------------------------------------
 Center     Atomic      Atomic             Coordinates (Angstroms)
 Number     Number       Type             X           Y           Z
 ---------------------------------------------------------------------
      1          8           0       -0.000000   -0.000000   -0.137373
      2          1           0        0.000000   -0.753252    0.456666
      3          1           0       -0.000000    0.753252    0.456666
 ---------------------------------------------------------------------
                    Distance matrix (angstroms):
                    1          2          3
     1  O    0.000000
     2  H    0.959307   0.000000
     3  H    0.959307   1.506503   0.000000
 Stoichiometry    H2O
 Framework group  C2V[C2(O),SGV(H2)]
 Deg. of freedom     2
 Full point group                 C2V     NOp   4
 Largest Abelian subgroup         C2V     NOp   4
 Largest concise Abelian subgroup C2      NOp   2
                         Standard orientation:                         
 ---------------------------------------------------------------------
 Center     Atomic      Atomic             Coordinates (Angstroms)
 Number     Number       Type             X           Y           Z
 ---------------------------------------------------------------------
      1          8           0        0.000000    0.000000    0.118808
      2          1           0        0.000000    0.753252   -0.475231
      3          1           0       -0.000000   -0.753252   -0.475231
 ---------------------------------------------------------------------
 Rotational constants (GHZ):    800.0521869    441.8978743    284.6663258
 Standard basis: 6-311++G(d,p) (5D, 7F)
 There are    17 symmetry adapted basis functions of A1  symmetry.
 There are     2 symmetry adapted basis functions of A2  symmetry.
 There are     6 symmetry adapted basis functions of B1  symmetry.
 There are    11 symmetry adapted basis functions of B2  symmetry.
 Integral buffers will be    131072 words long.
 Raffenetti 1 integral format.
 Two-electron integral symmetry is turned on.
    36 basis functions,    54 primitive gaussians,    37 cartesian basis functions
     5 alpha electrons        5 beta electrons
       nuclear repulsion energy         9.1772543588 Hartrees.
 NAtoms=    3 NActive=    3 NUniq=    2 SFac= 2.25D+00 NAtFMM=   60 NAOKFM=F Big=F
 One-electron integrals computed using PRISM.
 NBasis=    36 RedAO= T  NBF=    17     2     6    11
 NBsUse=    36 1.00D-06 NBFU=    17     2     6    11
 Initial guess read from the read-write file.
 B after Tr=     0.000000    0.000000    0.000000
         Rot=    1.000000    0.000000    0.000000    0.000000 Ang=   0.00 deg.
 Initial guess orbital symmetries:
       Occupied  (A1) (A1) (B2) (A1) (B1)
       Virtual   (A1) (B2) (A1) (B1) (A1) (B2) (B2) (A1) (B2) (A1)
                 (A1) (B1) (B2) (A1) (A2) (A1) (B1) (B2) (B2) (A1)
                 (A1) (B2) (B1) (A2) (A1) (A1) (B2) (B1) (A1) (B2)
                 (A1)
 Requested convergence on RMS density matrix=1.00D-08 within 128 cycles.
 Requested convergence on MAX density matrix=1.00D-06.
 Requested convergence on             energy=1.00D-06.
 No special actions if energy rises.
 Keep R1 ints in memory in canonical form, NReq=1090309.
 SCF Done:  E(RHF) =  -76.0526144204     A.U. after    8 cycles
             Convg  =    0.4929D-08             -V/T =  2.0009
 ExpMin= 3.60D-02 ExpMax= 8.59D+03 ExpMxC= 1.30D+03 IAcc=3 IRadAn=         5 AccDes= 0.00D+00
 HarFok:  IExCor=  205 AccDes= 0.00D+00 IRadAn=         5 IDoV=-2
 ScaDFX=  1.000000  1.000000  1.000000  1.000000
 Range of M.O.s used for correlation:     2    36
 NBasis=    36 NAE=     5 NBE=     5 NFC=     1 NFV=     0
 NROrb=     35 NOA=     4 NOB=     4 NVA=    31 NVB=    31
 Fully direct method using O(ONN) memory.
 JobTyp=1 Pass  1:  I=   2 to   5 NPSUse=  1 ParTrn=F ParDer=F DoDerP=T.
 Spin components of T(2) and E(2):
     alpha-alpha T2 =       0.7049623531D-02 E2=     -0.2809420437D-01
     alpha-beta  T2 =       0.4134932529D-01 E2=     -0.1661175469D+00
     beta-beta   T2 =       0.7049623531D-02 E2=     -0.2809420437D-01
 ANorm=    0.1027350268D+01
 E2 =    -0.2223059557D+00 EUMP2 =    -0.76274920376036D+02
          IDoAtm=111
          Differentiating once with respect to electric field.
                with respect to dipole field.
          Differentiating once with respect to nuclear coordinates.
          Keep R1 ints in memory in canonical form, NReq=1068143.
          There are     1 degrees of freedom in the 1st order CPHF.  IDoFFX=0.
 LinEq1:  Iter=  0 NonCon=     1 RMS=7.77D-03 Max=6.45D-02
 AX will form     1 AO Fock derivatives at one time.
 LinEq1:  Iter=  1 NonCon=     1 RMS=8.35D-04 Max=4.57D-03
 LinEq1:  Iter=  2 NonCon=     1 RMS=1.13D-04 Max=4.90D-04
 LinEq1:  Iter=  3 NonCon=     1 RMS=3.29D-05 Max=2.34D-04
 LinEq1:  Iter=  4 NonCon=     1 RMS=8.38D-06 Max=4.07D-05
 LinEq1:  Iter=  5 NonCon=     1 RMS=1.45D-06 Max=6.19D-06
 LinEq1:  Iter=  6 NonCon=     1 RMS=2.59D-07 Max=1.08D-06
 LinEq1:  Iter=  7 NonCon=     1 RMS=3.19D-08 Max=1.52D-07
 LinEq1:  Iter=  8 NonCon=     1 RMS=3.89D-09 Max=2.75D-08
 LinEq1:  Iter=  9 NonCon=     1 RMS=4.26D-10 Max=2.01D-09
 LinEq1:  Iter= 10 NonCon=     0 RMS=3.26D-11 Max=1.29D-10
 Linear equations converged to 1.000D-10 1.000D-09 after    10 iterations.
 End of Minotr Frequency-dependent properties file   721 does not exist.
 End of Minotr Frequency-dependent properties file   722 does not exist.
 Calling FoFJK, ICntrl=      2127 FMM=F ISym2X=1 I1Cent= 0 IOpClX= 0 NMat=1 NMatS=1 NMatT=0.
 ***** Axes restored to original set *****
 -------------------------------------------------------------------
 Center     Atomic                   Forces (Hartrees/Bohr)
 Number     Number              X              Y              Z
 -------------------------------------------------------------------
      1        8          -0.000000000    0.000000000   -0.000256444
      2        1           0.000000000   -0.000154672    0.000128222
      3        1           0.000000000    0.000154672    0.000128222
 -------------------------------------------------------------------
 Cartesian Forces:  Max     0.000256444 RMS     0.000127581

 GradGradGradGradGradGradGradGradGradGradGradGradGradGradGradGradGradGrad
 Berny optimization.
 Using GEDIIS/GDIIS optimizer.
 Internal  Forces:  Max     0.000200849 RMS     0.000164073
 Search for a local minimum.
 Step number   3 out of a maximum of   20
 All quantities printed in internal units (Hartrees-Bohrs-Radians)
 Mixed Optimization -- En-DIIS/RFO-DIIS
 Update second derivatives using D2CorX and points    1    2    3
 DE= -1.84D-05 DEPred=-1.76D-05 R= 1.04D+00
 SS=  1.41D+00  RLast= 1.11D-02 DXNew= 5.0454D-01 3.3267D-02
 Trust test= 1.04D+00 RLast= 1.11D-02 DXMaxT set to 3.00D-01
 The second derivative matrix:
                          R1        R2        A1
           R1           0.55149
           R2          -0.00324   0.55149
           A1           0.02579   0.02579   0.15214
 ITU=  1  1  0
 Use linear search instead of GDIIS.
     Eigenvalues ---    0.14881   0.55158   0.55473
 RFO step:  Lambda=-2.80502747D-08 EMin= 1.48811543D-01
 Quartic linear search produced a step of  0.06186.
 Iteration  1 RMS(Cart)=  0.00023207 RMS(Int)=  0.00000002
 Iteration  2 RMS(Cart)=  0.00000003 RMS(Int)=  0.00000000
 ClnCor:  largest displacement from symmetrization is 1.57D-15 for atom     3.
 Variable       Old X    -DE/DX   Delta X   Delta X   Delta X     New X
                                 (Linear)    (Quad)   (Total)
    R1        1.81283   0.00020   0.00030   0.00008   0.00038   1.81320
    R2        1.81283   0.00020   0.00030   0.00008   0.00038   1.81320
    A1        1.80605  -0.00001  -0.00054   0.00035  -0.00019   1.80586
         Item               Value     Threshold  Converged?
 Maximum Force            0.000201     0.000450     YES
 RMS     Force            0.000164     0.000300     YES
 Maximum Displacement     0.000246     0.001800     YES
 RMS     Displacement     0.000232     0.001200     YES
 Predicted change in Energy=-7.615510D-08
 Optimization completed.
    -- Stationary point found.
                           ----------------------------
                           !   Optimized Parameters   !
                           ! (Angstroms and Degrees)  !
 --------------------------                            --------------------------
 ! Name  Definition              Value          Derivative Info.                !
 --------------------------------------------------------------------------------
 ! R1    R(1,2)                  0.9593         -DE/DX =    0.0002              !
 ! R2    R(1,3)                  0.9593         -DE/DX =    0.0002              !
 ! A1    A(2,1,3)              103.4791         -DE/DX =    0.0                 !
 --------------------------------------------------------------------------------
 GradGradGradGradGradGradGradGradGradGradGradGradGradGradGradGradGradGrad

                          Input orientation:                          
 ---------------------------------------------------------------------
 Center     Atomic      Atomic             Coordinates (Angstroms)
 Number     Number       Type             X           Y           Z
 ---------------------------------------------------------------------
      1          8           0        0.000000   -0.000000   -0.137373
      2          1           0        0.000000   -0.753252    0.456666
      3          1           0       -0.000000    0.753252    0.456666
 ---------------------------------------------------------------------
                    Distance matrix (angstroms):
                    1          2          3
     1  O    0.000000
     2  H    0.959307   0.000000
     3  H    0.959307   1.506503   0.000000
 Stoichiometry    H2O
 Framework group  C2V[C2(O),SGV(H2)]
 Deg. of freedom     2
 Full point group                 C2V     NOp   4
 Largest Abelian subgroup         C2V     NOp   4
 Largest concise Abelian subgroup C2      NOp   2
                         Standard orientation:                         
 ---------------------------------------------------------------------
 Center     Atomic      Atomic             Coordinates (Angstroms)
 Number     Number       Type             X           Y           Z
 ---------------------------------------------------------------------
      1          8           0       -0.000000    0.000000    0.118808
      2          1           0        0.000000    0.753252   -0.475231
      3          1           0       -0.000000   -0.753252   -0.475231
 ---------------------------------------------------------------------
 Rotational constants (GHZ):    800.0521869    441.8978743    284.6663258

 **********************************************************************

            Population analysis using the SCF density.

 **********************************************************************

 Orbital symmetries:
       Occupied  (A1) (A1) (B2) (A1) (B1)
       Virtual   (A1) (B2) (A1) (B1) (A1) (B2) (B2) (A1) (B2) (A1)
                 (A1) (B1) (B2) (A1) (A2) (A1) (B1) (B2) (B2) (A1)
                 (A1) (B2) (B1) (A2) (A1) (A1) (B2) (B1) (A1) (B2)
                 (A1)
 The electronic state is 1-A1.
 Alpha  occ. eigenvalues --  -20.56743  -1.35523  -0.71743  -0.58589  -0.51027
 Alpha virt. eigenvalues --    0.04292   0.07230   0.24185   0.24546   0.24863
 Alpha virt. eigenvalues --    0.25945   0.31912   0.32434   0.68023   0.73880
 Alpha virt. eigenvalues --    1.19976   1.24388   1.24818   1.45318   1.50844
 Alpha virt. eigenvalues --    1.60983   1.70799   1.93973   2.29755   2.45659
 Alpha virt. eigenvalues --    2.70721   2.88148   3.48807   3.53069   3.71107
 Alpha virt. eigenvalues --    4.07766   4.33631   5.48922   5.88224   6.18702
 Alpha virt. eigenvalues --   51.56778
          Condensed to atoms (all electrons):
              1          2          3
     1  O    7.843460   0.332068   0.332068
     2  H    0.332068   0.438712  -0.024578
     3  H    0.332068  -0.024578   0.438712
 Mulliken atomic charges:
              1
     1  O   -0.507596
     2  H    0.253798
     3  H    0.253798
 Sum of Mulliken atomic charges =   0.00000
 Mulliken charges with hydrogens summed into heavy atoms:
              1
     1  O    0.000000
 Sum of Mulliken charges with hydrogens summed into heavy atoms =   0.00000
 Electronic spatial extent (au):  <R**2>=             19.5378
 Charge=              0.0000 electrons
 Dipole moment (field-independent basis, Debye):
    X=             -0.0000    Y=              0.0000    Z=             -2.2568  Tot=              2.2568
 Quadrupole moment (field-independent basis, Debye-Ang):
   XX=             -7.5620   YY=             -4.2930   ZZ=             -6.2615
   XY=              0.0000   XZ=              0.0000   YZ=             -0.0000
 Traceless Quadrupole moment (field-independent basis, Debye-Ang):
   XX=             -1.5231   YY=              1.7458   ZZ=             -0.2227
   XY=              0.0000   XZ=              0.0000   YZ=             -0.0000
 Octapole moment (field-independent basis, Debye-Ang**2):
  XXX=              0.0000  YYY=             -0.0000  ZZZ=             -1.5794  XYY=             -0.0000
  XXY=              0.0000  XXZ=             -0.4424  XZZ=              0.0000  YZZ=              0.0000
  YYZ=             -1.4374  XYZ=             -0.0000
 Hexadecapole moment (field-independent basis, Debye-Ang**3):
 XXXX=             -6.6519 YYYY=             -5.9650 ZZZZ=             -7.2632 XXXY=             -0.0000
 XXXZ=             -0.0000 YYYX=             -0.0000 YYYZ=             -0.0000 ZZZX=             -0.0000
 ZZZY=              0.0000 XXYY=             -2.4007 XXZZ=             -2.3802 YYZZ=             -1.8371
 XXYZ=             -0.0000 YYXZ=              0.0000 ZZXY=              0.0000
 N-N= 9.177254358814D+00 E-N=-1.989709714040D+02  KE= 7.598370393546D+01
 Symmetry A1   KE= 6.793379690264D+01
 Symmetry A2   KE= 9.260786544296D-35
 Symmetry B1   KE= 4.481892623022D+00
 Symmetry B2   KE= 3.568014409802D+00
 1\1\GINC-SRU02\FOpt\RMP2-FC\6-311++G(d,p)\H2O1\JAMES\20-Jun-2024\0\\# 
 opt freq=hpmodes mp2/6-311++g(d,p) geom=connectivity\\h2o vibration\\0
 ,1\O,0.,0.,-0.1373727244\H,0.,-0.7532516165,0.4566657472\H,0.,0.753251
 6165,0.4566657472\\Version=AM64L-G09RevC.01\State=1-A1\HF=-76.0526144\
 MP2=-76.2749204\RMSD=4.929e-09\RMSF=1.276e-04\Dipole=0.,0.,0.860354\PG
 =C02V [C2(O1),SGV(H2)]\\@


 GOD GAVE US TWO ENDS... ONE TO SIT ON...    
 AND THE OTHER TO THINK WITH...              
 YOUR SUCCESS DEPENDS UPON WHICH END YOU     
 USE THE MOST...                             
                                             
 IT'S A CASE OF HEADS YOU WIN TAILS YOU LOSE.
          SOURCE UNKNOWN(IT'S JUST AS WELL.) 
 Job cpu time:  0 days  0 hours  0 minutes  3.2 seconds.
 File lengths (MBytes):  RWF=      5 Int=      0 D2E=      0 Chk=      1 Scr=      1
 Normal termination of Gaussian 09 at Thu Jun 20 15:36:13 2024.
 Link1:  Proceeding to internal job step number  2.
 ----------------------------------------------------------------------
 #N Geom=AllCheck Guess=TCheck SCRF=Check GenChk RMP2(FC)/6-311++G(d,p)
  Freq
 ----------------------------------------------------------------------
 1/10=4,29=7,30=1,38=1,40=1/1,3;
 2/12=2,40=1/2;
 3/5=4,6=6,7=1111,11=1,14=-4,16=1,25=1,30=1,70=2,71=2,116=1/1,2,3;
 4/5=101/1;
 5/5=2,98=1/2;
 8/6=3,8=1,10=2,19=11,30=-1/1;
 9/15=3,16=-3/6;
 11/6=1,8=1,15=11,17=12,24=-1,27=1,28=-2,29=300,32=6,42=3/1,2,10;
 10/6=2,21=1/2;
 8/6=4,8=1,10=2,19=11,30=-1/11,4;
 10/5=1,20=4/2;
 11/12=2,14=11,16=1,17=2,28=-2,42=3/2,10,12;
 6/7=2,8=2,9=2,10=2/1;
 7/8=11,10=1,12=2,25=1,44=2/1,2,3,16;
 1/10=4,30=1/3;
 99//99;
 Structure from the checkpoint file:  h2o.chk
 -------------
 h2o vibration
 -------------
 Charge =  0 Multiplicity = 1
 Redundant internal coordinates found in file.
 O,0,0.,0.,-0.1373727244
 H,0,0.,-0.7532516165,0.4566657472
 H,0,0.,0.7532516165,0.4566657472
 Recover connectivity data from disk.

 GradGradGradGradGradGradGradGradGradGradGradGradGradGradGradGradGradGrad
 Berny optimization.
 Initialization pass.
                           ----------------------------
                           !    Initial Parameters    !
                           ! (Angstroms and Degrees)  !
 --------------------------                            --------------------------
 ! Name  Definition              Value          Derivative Info.                !
 --------------------------------------------------------------------------------
 ! R1    R(1,2)                  0.9593         calculate D2E/DX2 analytically  !
 ! R2    R(1,3)                  0.9593         calculate D2E/DX2 analytically  !
 ! A1    A(2,1,3)              103.4791         calculate D2E/DX2 analytically  !
 --------------------------------------------------------------------------------
 Trust Radius=3.00D-01 FncErr=1.00D-07 GrdErr=1.00D-07
 Number of steps in this run=      2 maximum allowed number of steps=      2.
 GradGradGradGradGradGradGradGradGradGradGradGradGradGradGradGradGradGrad

                          Input orientation:                          
 ---------------------------------------------------------------------
 Center     Atomic      Atomic             Coordinates (Angstroms)
 Number     Number       Type             X           Y           Z
 ---------------------------------------------------------------------
      1          8           0        0.000000   -0.000000   -0.137373
      2          1           0        0.000000   -0.753252    0.456666
      3          1           0       -0.000000    0.753252    0.456666
 ---------------------------------------------------------------------
                    Distance matrix (angstroms):
                    1          2          3
     1  O    0.000000
     2  H    0.959307   0.000000
     3  H    0.959307   1.506503   0.000000
 Stoichiometry    H2O
 Framework group  C2V[C2(O),SGV(H2)]
 Deg. of freedom     2
 Full point group                 C2V     NOp   4
 Largest Abelian subgroup         C2V     NOp   4
 Largest concise Abelian subgroup C2      NOp   2
                         Standard orientation:                         
 ---------------------------------------------------------------------
 Center     Atomic      Atomic             Coordinates (Angstroms)
 Number     Number       Type             X           Y           Z
 ---------------------------------------------------------------------
      1          8           0       -0.000000    0.000000    0.118808
      2          1           0       -0.000000    0.753252   -0.475231
      3          1           0       -0.000000   -0.753252   -0.475231
 ---------------------------------------------------------------------
 Rotational constants (GHZ):    800.0521869    441.8978743    284.6663258
 Standard basis: 6-311++G(d,p) (5D, 7F)
 There are    17 symmetry adapted basis functions of A1  symmetry.
 There are     2 symmetry adapted basis functions of A2  symmetry.
 There are     6 symmetry adapted basis functions of B1  symmetry.
 There are    11 symmetry adapted basis functions of B2  symmetry.
 Integral buffers will be    131072 words long.
 Raffenetti 1 integral format.
 Two-electron integral symmetry is turned on.
    36 basis functions,    54 primitive gaussians,    37 cartesian basis functions
     5 alpha electrons        5 beta electrons
       nuclear repulsion energy         9.1772543588 Hartrees.
 NAtoms=    3 NActive=    3 NUniq=    2 SFac= 2.25D+00 NAtFMM=   60 NAOKFM=F Big=F
 One-electron integrals computed using PRISM.
 NBasis=    36 RedAO= T  NBF=    17     2     6    11
 NBsUse=    36 1.00D-06 NBFU=    17     2     6    11
 Initial guess read from the checkpoint file:  h2o.chk
 B after Tr=     0.000000   -0.000000   -0.000000
         Rot=    1.000000    0.000000   -0.000000    0.000000 Ang=   0.00 deg.
 Initial guess orbital symmetries:
       Occupied  (A1) (A1) (B2) (A1) (B1)
       Virtual   (A1) (B2) (A1) (B1) (A1) (B2) (B2) (A1) (B2) (A1)
                 (A1) (B1) (B2) (A1) (A2) (A1) (B1) (B2) (B2) (A1)
                 (A1) (B2) (B1) (A2) (A1) (A1) (B2) (B1) (A1) (B2)
                 (A1)
 Requested convergence on RMS density matrix=1.00D-08 within 128 cycles.
 Requested convergence on MAX density matrix=1.00D-06.
 Requested convergence on             energy=1.00D-06.
 No special actions if energy rises.
 Keep R1 ints in memory in canonical form, NReq=1090309.
 SCF Done:  E(RHF) =  -76.0526144204     A.U. after    1 cycles
             Convg  =    0.8638D-09             -V/T =  2.0009
 ExpMin= 3.60D-02 ExpMax= 8.59D+03 ExpMxC= 1.30D+03 IAcc=3 IRadAn=         5 AccDes= 0.00D+00
 HarFok:  IExCor=  205 AccDes= 0.00D+00 IRadAn=         5 IDoV=-2
 ScaDFX=  1.000000  1.000000  1.000000  1.000000
 Range of M.O.s used for correlation:     2    36
 NBasis=    36 NAE=     5 NBE=     5 NFC=     1 NFV=     0
 NROrb=     35 NOA=     4 NOB=     4 NVA=    31 NVB=    31
 Disk-based method using ON**2 memory for  4 occupieds at a time.
 Permanent disk used for amplitudes=       28675 words.
 Estimated scratch disk usage=      925800 words.
 Actual    scratch disk usage=      925800 words.
 JobTyp=1 Pass  1:  I=   2 to   5 NPSUse=  1 ParTrn=F ParDer=F DoDerP=T.
 (rs|ai) integrals will be sorted in core.
 Spin components of T(2) and E(2):
     alpha-alpha T2 =       0.7049623552D-02 E2=     -0.2809420443D-01
     alpha-beta  T2 =       0.4134932536D-01 E2=     -0.1661175471D+00
     beta-beta   T2 =       0.7049623552D-02 E2=     -0.2809420443D-01
 ANorm=    0.1027350268D+01
 E2 =    -0.2223059559D+00 EUMP2 =    -0.76274920376275D+02
 G2DrvN: will do     4 centers at a time, making    1 passes doing MaxLOS=2.
 Calling FoFCou, ICntrl=  3107 FMM=F I1Cent=   0 AccDes= 0.00D+00.
 FoFDir/FoFCou used for L=0 through L=2.
 End of G2Drv Frequency-dependent properties file   721 does not exist.
 End of G2Drv Frequency-dependent properties file   722 does not exist.
          IDoAtm=111
          Differentiating once with respect to electric field.
                with respect to dipole field.
          Differentiating once with respect to nuclear coordinates.
          Keep R1 ints in memory in canonical form, NReq=1068143.
          There are    12 degrees of freedom in the 1st order CPHF.  IDoFFX=5.
      9 vectors produced by pass  0 Test12= 1.29D-15 8.33D-09 XBig12= 1.44D+00 7.25D-01.
 AX will form     9 AO Fock derivatives at one time.
      9 vectors produced by pass  1 Test12= 1.29D-15 8.33D-09 XBig12= 8.91D-02 1.26D-01.
      9 vectors produced by pass  2 Test12= 1.29D-15 8.33D-09 XBig12= 2.17D-03 1.71D-02.
      9 vectors produced by pass  3 Test12= 1.29D-15 8.33D-09 XBig12= 2.71D-05 2.11D-03.
      9 vectors produced by pass  4 Test12= 1.29D-15 8.33D-09 XBig12= 2.39D-07 1.97D-04.
      9 vectors produced by pass  5 Test12= 1.29D-15 8.33D-09 XBig12= 1.19D-09 1.27D-05.
      7 vectors produced by pass  6 Test12= 1.29D-15 8.33D-09 XBig12= 4.58D-12 8.51D-07.
      2 vectors produced by pass  7 Test12= 1.29D-15 8.33D-09 XBig12= 1.90D-14 4.34D-08.
 Inverted reduced A of dimension    63 with in-core refinement.
 End of Minotr Frequency-dependent properties file   721 does not exist.
 End of Minotr Frequency-dependent properties file   722 does not exist.
 MDV=    33554432.
 Form MO integral derivatives with frozen-active canonical formalism.
 Discarding MO integrals.
 Reordered first order wavefunction length =        48050
 In DefCFB: NBatch=  1 ICI=  5 ICA= 31 LFMax= 16
            Large arrays: LIAPS=      825840 LIARS=      923335 words.
 Semi-Direct transformation.
 ModeAB=           4 MOrb=             5 LenV=      33371302
 LASXX=       102355 LTotXX=      102355 LenRXX=      213250
 LTotAB=      110895 MaxLAS=       96840 LenRXY=           0
 NonZer=      315605 LenScr=      946176 LnRSAI=       96840
 LnScr1=      785920 LExtra=           0 Total=      2042186
 MaxDsk=          -1 SrtSym=           T ITran=            4
 JobTyp=0 Pass  1:  I=   1 to   5.
 (rs|ai) integrals will be sorted in core.
 Spin components of T(2) and E(2):
     alpha-alpha T2 =       0.7049623552D-02 E2=     -0.2809420443D-01
     alpha-beta  T2 =       0.4134932536D-01 E2=     -0.1661175471D+00
     beta-beta   T2 =       0.7049623552D-02 E2=     -0.2809420443D-01
 ANorm=    0.1452892682D+01
 E2 =    -0.2223059559D+00 EUMP2 =    -0.76274920376275D+02
          IDoAtm=111
          Differentiating once with respect to electric field.
                with respect to dipole field.
          Differentiating once with respect to nuclear coordinates.
          There are     1 degrees of freedom in the 1st order CPHF.  IDoFFX=0.
 LinEq1:  Iter=  0 NonCon=     1 RMS=7.77D-03 Max=6.45D-02
 LinEq1:  Iter=  1 NonCon=     1 RMS=8.35D-04 Max=4.57D-03
 LinEq1:  Iter=  2 NonCon=     1 RMS=1.13D-04 Max=4.90D-04
 LinEq1:  Iter=  3 NonCon=     1 RMS=3.29D-05 Max=2.34D-04
 LinEq1:  Iter=  4 NonCon=     1 RMS=8.38D-06 Max=4.07D-05
 LinEq1:  Iter=  5 NonCon=     1 RMS=1.45D-06 Max=6.19D-06
 LinEq1:  Iter=  6 NonCon=     1 RMS=2.59D-07 Max=1.08D-06
 LinEq1:  Iter=  7 NonCon=     1 RMS=3.19D-08 Max=1.52D-07
 LinEq1:  Iter=  8 NonCon=     1 RMS=3.89D-09 Max=2.75D-08
 LinEq1:  Iter=  9 NonCon=     1 RMS=4.26D-10 Max=2.01D-09
 LinEq1:  Iter= 10 NonCon=     0 RMS=3.26D-11 Max=1.29D-10
 Linear equations converged to 1.000D-10 1.000D-09 after    10 iterations.
 End of Minotr Frequency-dependent properties file   721 does not exist.
 End of Minotr Frequency-dependent properties file   722 does not exist.
 Symmetrizing basis deriv contribution to polar:
 IMax=3 JMax=2 DiffMx= 0.00D+00
 G2DrvN: will do     4 centers at a time, making    1 passes doing MaxLOS=2.
 Calling FoFCou, ICntrl=  3107 FMM=F I1Cent=   0 AccDes= 0.00D+00.
 FoFDir/FoFCou used for L=0 through L=2.
 End of G2Drv Frequency-dependent properties file   721 does not exist.
 End of G2Drv Frequency-dependent properties file   722 does not exist.
 R2 and R3 integrals will be kept in memory, NReq=     1314912.
 DD1Dir will call FoFMem   1 times, MxPair=        30
 NAB=    15 NAA=     0 NBB=     0.
 Discarding MO integrals.

 **********************************************************************

            Population analysis using the SCF density.

 **********************************************************************

 Orbital symmetries:
       Occupied  (A1) (A1) (B2) (A1) (B1)
       Virtual   (A1) (B2) (A1) (B1) (A1) (B2) (B2) (A1) (B2) (A1)
                 (A1) (B1) (B2) (A1) (A2) (A1) (B1) (B2) (B2) (A1)
                 (A1) (B2) (B1) (A2) (A1) (A1) (B2) (B1) (A1) (B2)
                 (A1)
 The electronic state is 1-A1.
 Alpha  occ. eigenvalues --  -20.56743  -1.35523  -0.71743  -0.58589  -0.51027
 Alpha virt. eigenvalues --    0.04292   0.07230   0.24185   0.24546   0.24863
 Alpha virt. eigenvalues --    0.25945   0.31912   0.32434   0.68023   0.73880
 Alpha virt. eigenvalues --    1.19976   1.24388   1.24818   1.45318   1.50844
 Alpha virt. eigenvalues --    1.60983   1.70799   1.93973   2.29755   2.45659
 Alpha virt. eigenvalues --    2.70721   2.88148   3.48807   3.53069   3.71107
 Alpha virt. eigenvalues --    4.07766   4.33631   5.48922   5.88224   6.18702
 Alpha virt. eigenvalues --   51.56778
          Condensed to atoms (all electrons):
              1          2          3
     1  O    7.843460   0.332068   0.332068
     2  H    0.332068   0.438712  -0.024578
     3  H    0.332068  -0.024578   0.438712
 Mulliken atomic charges:
              1
     1  O   -0.507596
     2  H    0.253798
     3  H    0.253798
 Sum of Mulliken atomic charges =  -0.00000
 Mulliken charges with hydrogens summed into heavy atoms:
              1
     1  O   -0.000000
 Sum of Mulliken charges with hydrogens summed into heavy atoms =  -0.00000
 APT atomic charges:
              1
     1  O   -0.555000
     2  H    0.277500
     3  H    0.277500
 Sum of APT charges=  -0.00000
 APT Atomic charges with hydrogens summed into heavy atoms:
              1
     1  O   -0.000000
     2  H    0.000000
     3  H    0.000000
 Sum of APT charges=  -0.00000
 Electronic spatial extent (au):  <R**2>=             19.5378
 Charge=             -0.0000 electrons
 Dipole moment (field-independent basis, Debye):
    X=             -0.0000    Y=             -0.0000    Z=             -2.2568  Tot=              2.2568
 Quadrupole moment (field-independent basis, Debye-Ang):
   XX=             -7.5620   YY=             -4.2930   ZZ=             -6.2615
   XY=              0.0000   XZ=              0.0000   YZ=              0.0000
 Traceless Quadrupole moment (field-independent basis, Debye-Ang):
   XX=             -1.5231   YY=              1.7458   ZZ=             -0.2227
   XY=              0.0000   XZ=              0.0000   YZ=              0.0000
 Octapole moment (field-independent basis, Debye-Ang**2):
  XXX=              0.0000  YYY=             -0.0000  ZZZ=             -1.5794  XYY=             -0.0000
  XXY=              0.0000  XXZ=             -0.4424  XZZ=              0.0000  YZZ=              0.0000
  YYZ=             -1.4374  XYZ=             -0.0000
 Hexadecapole moment (field-independent basis, Debye-Ang**3):
 XXXX=             -6.6519 YYYY=             -5.9650 ZZZZ=             -7.2632 XXXY=             -0.0000
 XXXZ=             -0.0000 YYYX=             -0.0000 YYYZ=             -0.0000 ZZZX=             -0.0000
 ZZZY=              0.0000 XXYY=             -2.4007 XXZZ=             -2.3802 YYZZ=             -1.8371
 XXYZ=              0.0000 YYXZ=              0.0000 ZZXY=              0.0000
 N-N= 9.177254358814D+00 E-N=-1.989709714184D+02  KE= 7.598370394426D+01
 Symmetry A1   KE= 6.793379690319D+01
 Symmetry A2   KE= 9.031535508926D-35
 Symmetry B1   KE= 4.481892605814D+00
 Symmetry B2   KE= 3.568014435263D+00
  Exact polarizability:   6.769   0.000   7.987   0.000  -0.000   6.668
 Approx polarizability:   4.171   0.000   6.240   0.000   0.000   4.980
 Calling FoFJK, ICntrl=    100127 FMM=F ISym2X=1 I1Cent= 0 IOpClX= 0 NMat=1 NMatS=1 NMatT=0.
 Full mass-weighted force constant matrix:
 Low frequencies ---  -58.0713  -55.0925  -53.3760   -0.0024   -0.0022   -0.0021
 Low frequencies --- 1628.0292 3887.1921 4005.5056
 Harmonic frequencies (cm**-1), IR intensities (KM/Mole), Raman scattering
 activities (A**4/AMU), depolarization ratios for plane and unpolarized
 incident light, reduced masses (AMU), force constants (mDyne/A),
 and normal coordinates:
                           1         2         3
                          A1        A1        B2
       Frequencies ---  1628.0292 3887.1921 4005.5056
    Reduced masses ---     1.0814    1.0464    1.0808
   Force constants ---     1.6887    9.3155   10.2170
    IR Intensities ---    57.3515   13.0901   62.8345
 Coord Atom Element:
   1     1     8          0.00000   0.00000   0.00000
   2     1     8          0.00000  -0.00000   0.06980
   3     1     8          0.07006   0.05071  -0.00000
   1     2     1         -0.00000   0.00000   0.00000
   2     2     1         -0.43410   0.58033  -0.55387
   3     2     1         -0.55597  -0.40240   0.43680
   1     3     1         -0.00000  -0.00000  -0.00000
   2     3     1          0.43410  -0.58033  -0.55387
   3     3     1         -0.55597  -0.40240  -0.43680
 Harmonic frequencies (cm**-1), IR intensities (KM/Mole), Raman scattering
 activities (A**4/AMU), depolarization ratios for plane and unpolarized
 incident light, reduced masses (AMU), force constants (mDyne/A),
 and normal coordinates:
                     1                      2                      3
                    A1                     A1                     B2
 Frequencies --  1628.0292              3887.1921              4005.5056
 Red. masses --     1.0814                 1.0464                 1.0808
 Frc consts  --     1.6887                 9.3155                10.2170
 IR Inten    --    57.3515                13.0901                62.8345
  Atom  AN      X      Y      Z        X      Y      Z        X      Y      Z
     1   8     0.00   0.00   0.07     0.00  -0.00   0.05     0.00   0.07  -0.00
     2   1    -0.00  -0.43  -0.56     0.00   0.58  -0.40     0.00  -0.55   0.44
     3   1    -0.00   0.43  -0.56    -0.00  -0.58  -0.40    -0.00  -0.55  -0.44

 -------------------
 - Thermochemistry -
 -------------------
 Temperature   298.150 Kelvin.  Pressure   1.00000 Atm.
 Atom     1 has atomic number  8 and mass  15.99491
 Atom     2 has atomic number  1 and mass   1.00783
 Atom     3 has atomic number  1 and mass   1.00783
 Molecular mass:    18.01056 amu.
 Principal axes and moments of inertia in atomic units:
                           1         2         3
     Eigenvalues --     2.25578   4.08407   6.33985
           X            0.00000   0.00000   1.00000
           Y            1.00000   0.00000  -0.00000
           Z            0.00000   1.00000   0.00000
 This molecule is an asymmetric top.
 Rotational symmetry number  2.
 Rotational temperatures (Kelvin)     38.39640    21.20773    13.66181
 Rotational constants (GHZ):         800.05219   441.89787   284.66633
 Zero-point vibrational energy      56946.6 (Joules/Mol)
                                   13.61056 (Kcal/Mol)
 Vibrational temperatures:   2342.37  5592.80  5763.02
          (Kelvin)
 
 Zero-point correction=                           0.021690 (Hartree/Particle)
 Thermal correction to Energy=                    0.024525
 Thermal correction to Enthalpy=                  0.025469
 Thermal correction to Gibbs Free Energy=         0.004049
 Sum of electronic and zero-point Energies=            -76.253231
 Sum of electronic and thermal Energies=               -76.250395
 Sum of electronic and thermal Enthalpies=             -76.249451
 Sum of electronic and thermal Free Energies=          -76.270871
 
                     E (Thermal)             CV                S
                      KCal/Mol        Cal/Mol-Kelvin    Cal/Mol-Kelvin
 Total                   15.390              6.009             45.082
 Electronic               0.000              0.000              0.000
 Translational            0.889              2.981             34.608
 Rotational               0.889              2.981             10.467
 Vibrational             13.612              0.048              0.007
                       Q            Log10(Q)             Ln(Q)
 Total Bot       0.137204D-01         -1.862634         -4.288874
 Total V=0       0.130007D+09          8.113965         18.683095
 Vib (Bot)       0.105577D-09         -9.976431        -22.971582
 Vib (V=0)       0.100039D+01          0.000168          0.000387
 Electronic      0.100000D+01          0.000000          0.000000
 Translational   0.300432D+07          6.477746         14.915562
 Rotational      0.432564D+02          1.636051          3.767146
 ***** Axes restored to original set *****
 -------------------------------------------------------------------
 Center     Atomic                   Forces (Hartrees/Bohr)
 Number     Number              X              Y              Z
 -------------------------------------------------------------------
      1        8          -0.000000000   -0.000000000   -0.000256446
      2        1          -0.000000000   -0.000154672    0.000128223
      3        1           0.000000000    0.000154672    0.000128223
 -------------------------------------------------------------------
 Cartesian Forces:  Max     0.000256446 RMS     0.000127582

 GradGradGradGradGradGradGradGradGradGradGradGradGradGradGradGradGradGrad
 Berny optimization.
 Internal  Forces:  Max     0.000200849 RMS     0.000164073
 Search for a local minimum.
 Step number   1 out of a maximum of    2
 All quantities printed in internal units (Hartrees-Bohrs-Radians)
 Second derivative matrix not updated -- analytic derivatives used.
 The second derivative matrix:
                          R1        R2        A1
           R1           0.55968
           R2          -0.00812   0.55968
           A1           0.03037   0.03037   0.15766
 ITU=  0
     Eigenvalues ---    0.15303   0.55619   0.56780
 Angle between quadratic step and forces=  18.95 degrees.
 Linear search not attempted -- first point.
 Iteration  1 RMS(Cart)=  0.00023098 RMS(Int)=  0.00000003
 Iteration  2 RMS(Cart)=  0.00000003 RMS(Int)=  0.00000000
 ClnCor:  largest displacement from symmetrization is 2.48D-16 for atom     3.
 Variable       Old X    -DE/DX   Delta X   Delta X   Delta X     New X
                                 (Linear)    (Quad)   (Total)
    R1        1.81283   0.00020   0.00000   0.00038   0.00038   1.81320
    R2        1.81283   0.00020   0.00000   0.00038   0.00038   1.81320
    A1        1.80605  -0.00001   0.00000  -0.00020  -0.00020   1.80585
         Item               Value     Threshold  Converged?
 Maximum Force            0.000201     0.000450     YES
 RMS     Force            0.000164     0.000300     YES
 Maximum Displacement     0.000250     0.001800     YES
 RMS     Displacement     0.000231     0.001200     YES
 Predicted change in Energy=-7.625389D-08
 Optimization completed.
    -- Stationary point found.
                           ----------------------------
                           !   Optimized Parameters   !
                           ! (Angstroms and Degrees)  !
 --------------------------                            --------------------------
 ! Name  Definition              Value          Derivative Info.                !
 --------------------------------------------------------------------------------
 ! R1    R(1,2)                  0.9593         -DE/DX =    0.0002              !
 ! R2    R(1,3)                  0.9593         -DE/DX =    0.0002              !
 ! A1    A(2,1,3)              103.4791         -DE/DX =    0.0                 !
 --------------------------------------------------------------------------------
 GradGradGradGradGradGradGradGradGradGradGradGradGradGradGradGradGradGrad

 1\1\GINC-SRU02\Freq\RMP2-FC\6-311++G(d,p)\H2O1\JAMES\20-Jun-2024\0\\#N
  Geom=AllCheck Guess=TCheck SCRF=Check GenChk RMP2(FC)/6-311++G(d,p) F
 req\\h2o vibration\\0,1\O,0.,0.,-0.1373727244\H,0.,-0.7532516165,0.456
 6657472\H,0.,0.7532516165,0.4566657472\\Version=AM64L-G09RevC.01\State
 =1-A1\HF=-76.0526144\MP2=-76.2749204\RMSD=8.638e-10\RMSF=1.276e-04\Zer
 oPoint=0.0216898\Thermal=0.0245252\Dipole=0.,0.,0.860354\DipoleDeriv=-
 0.7664146,0.,0.,0.,-0.5453226,0.,0.,0.,-0.3532631,0.3832073,0.,0.,0.,0
 .2726613,0.0357867,0.,0.0871801,0.1766315,0.3832073,0.,0.,0.,0.2726613
 ,-0.0357867,0.,-0.0871801,0.1766315\Polar=6.7691919,0.,7.9873002,0.,0.
 ,6.6681618\PG=C02V [C2(O1),SGV(H2)]\NImag=0\\-0.00022845,0.,0.70005890
 ,0.,0.,0.47601563,0.00011422,0.,0.,-0.00011144,0.,-0.35002945,0.213775
 57,0.,0.37970830,0.,0.27613457,-0.23800781,0.,-0.24495507,0.22783388,0
 .00011422,0.,0.,-0.00000278,0.,0.,-0.00011144,0.,-0.35002945,-0.213775
 57,0.,-0.02967885,-0.03117950,0.,0.37970830,0.,-0.27613457,-0.23800781
 ,0.,0.03117950,0.01017393,0.,0.24495507,0.22783388\\0.,0.,0.00025645,0
 .,0.00015467,-0.00012822,0.,-0.00015467,-0.00012822\\\@


 NATURE GIVES TO EVERY TIME AND SEASON SOME BEAUTY OF ITS OWN.

                                                    --DICKENS
 Job cpu time:  0 days  0 hours  0 minutes  3.5 seconds.
 File lengths (MBytes):  RWF=     22 Int=      0 D2E=      0 Chk=      1 Scr=      1
 Normal termination of Gaussian 09 at Thu Jun 20 15:36:18 2024.
